time,root_dist,x,y,z,rel_vel_mag,Re,alpha_deg,alpha_geom_deg,cl,cd,fx,fy,fz,end_effect_factor
1.2,0.7,0.0147196413661,-20.9194357179,39.3410607113,57.6862767587,10542543.5971,7.52352148959,8.25039171259,1.28836646827,0.0100519059635,26033.635997,-4116.84387758,-2280.66285938,1
1.6,0.7,0.0147196413661,-37.3821176824,24.2470436595,57.6373579625,10533603.3678,7.43706627731,8.25039171259,1.28134268554,0.00996306883765,25854.7080019,-2454.82725312,-3930.88510957,1
2,0.7,0.0147196413661,-44.4519380016,3.06056474302,57.7160544159,10547985.6583,8.0074106815,8.25039171259,1.32737397361,0.0105526780787,26808.3729041,-261.560809119,-5069.77330718,1
2.4,0.7,0.0147196413661,-40.3524899808,-18.8949305634,57.8436387837,10571302.5342,7.88773582239,8.25039171259,1.3179694501,0.0104265957803,26746.5624728,2201.3685387,-4498.26057433,1
2.8,0.7,0.0147196413661,-26.1138262352,-36.1027689797,57.841960438,10570995.8056,7.36839359391,8.25039171259,1.27593152254,0.00988872980826,25934.0627559,3787.07852543,-2641.41842165,1
3.2,0.7,0.0147196413661,-5.31364131147,-44.2392028031,57.7309167871,10550701.8536,7.15354940832,8.25039171259,1.25848340743,0.00966781024111,25497.8187356,4419.52515088,-454.05033639,1
3.6,0.7,0.0147196413661,16.8216819288,-41.2598214457,57.6856635755,10542431.5338,7.32649084824,8.25039171259,1.27243919236,0.00984770555233,25726.787074,4193.5078091,1794.25744631,1
4,0.7,0.0147196413661,34.7302855289,-27.9132426587,57.7518646189,10554530.2066,7.35356055836,8.25039171259,1.27467121651,0.00987474732055,25828.971717,2814.66233781,3627.90833845,1
4.4,0.7,0.0147196413661,43.9123432002,-7.55301021542,57.7568796191,10555446.7306,7.24079831551,8.25039171259,1.26555399963,0.00975783596056,25657.4346558,688.119523535,4457.32385616,1
4.8,0.7,0.0147196413661,42.0607144521,14.7050381986,57.7228239135,10549222.8281,7.18373080656,8.25039171259,1.26091960939,0.00969920290595,25537.7147017,-1545.10663487,4187.3670693,1
5.2,0.7,0.0147196413661,29.6406509538,33.2682079421,57.7128120748,10547393.0993,7.17938169945,8.25039171259,1.26056250319,0.00969484149437,25521.9591184,-3379.39856018,2908.43291623,1
5.6,0.7,0.0147196413661,9.77289452791,43.4722023964,57.7236856596,10549380.3179,7.14542849943,8.25039171259,1.25782294882,0.00965949901168,25478.6707237,-4343.84318338,898.514653661,1
6,0.7,0.0147196413661,-12.5504597043,42.7531029266,57.7266361126,10549919.5324,7.08956988028,8.25039171259,1.25330763234,0.0096015730037,25394.0159608,-4196.18127183,-1310.42291641,1
6.4,0.7,0.0147196413661,-31.7203079584,31.2915949046,57.7202196305,10548746.8784,7.05498163248,8.25039171259,1.25050781171,0.00956582042324,25334.2456698,-3015.30224843,-3163.37084818,1
6.8,0.7,0.0147196413661,-42.9199158282,11.9675675866,57.730926408,10550703.6119,7.03781169506,8.25039171259,1.24912426627,0.00954787893299,25316.8863456,-1098.72341592,-4218.85734623,1
7.2,0.7,0.0147196413661,-43.3352007064,-10.3635046378,57.7529439277,10554727.4573,6.9860143283,8.25039171259,1.24483310878,0.00949200054646,25252.9998267,1078.08955425,-4189.0510735,1
7.6,0.7,0.0147196413661,-32.8618155509,-30.090578714,57.7720142816,10558212.689,6.87017849819,8.25039171259,1.23454727161,0.00935597164664,25069.3029313,2918.73800865,-3079.79517571,1
8,0.7,0.0147196413661,-14.131367767,-42.2569082361,57.7289728552,10550346.5874,6.71932444527,8.25039171259,1.22112692164,0.00917963678196,24770.534427,3935.85597385,-1241.61203557,1
8.4,0.7,0.0147196413661,8.14981471357,-43.8055061468,57.6062612899,10527920.2479,6.70606529522,8.25039171259,1.21990744272,0.00916544303978,24641.638905,4017.21371638,818.861856399,1
8.8,0.7,0.0147196413661,28.3832244412,-34.3472621757,57.5860227791,10524221.5279,6.84215305566,8.25039171259,1.23198692092,0.00932540439051,24858.5037741,3187.59531671,2727.41030301,1
9.2,0.7,0.0147196413661,41.4848899887,-16.2587130878,57.6155197761,10529612.2967,6.91501541469,8.25039171259,1.23846970101,0.00941054801945,25009.6572426,1483.6514147,3985.46167496,1
9.6,0.7,0.0147196413661,44.1628059952,5.9151006141,57.6260080923,10531529.1049,6.93612459069,8.25039171259,1.24034885588,0.00943518240791,25055.1906277,-639.304410316,4221.55501875,1
10,0.7,0.0147196413661,35.7441027544,26.6026496223,57.6324280703,10532702.3978,6.93484600946,8.25039171259,1.24023786743,0.00943359791586,25058.6237983,-2607.57648856,3380.97523624,1
10.4,0.7,0.0147196413661,18.3441156105,40.6058526707,57.6446192993,10534930.4245,6.92075344155,8.25039171259,1.23899093617,0.00941690391778,25045.0450286,-3912.83983537,1687.48007695,1
10.8,0.7,0.0147196413661,-3.66512725831,44.4061785208,57.6591057229,10537577.9129,6.90199556738,8.25039171259,1.23733037735,0.00939471058831,25025.4094922,-4228.61786546,-422.137345673,1
11.2,0.7,0.0147196413661,-24.7534476277,37.0487338406,57.677385801,10540918.7165,6.8780669306,8.25039171259,1.23521177133,0.00936640920695,25000.130586,-3480.3683066,-2412.6812621,1
11.6,0.7,0.0147196413661,-39.6220639453,20.3821955971,57.7009084035,10545217.6257,6.85014007732,8.25039171259,1.23273968262,0.00933336208442,24972.4595876,-1864.85365723,-3783.30042764,1
12,0.7,0.0147196413661,-44.5349958927,-1.40569892958,57.7284436959,10550249.8801,6.80646092858,8.25039171259,1.22886906942,0.00928180911584,24920.9373905,203.980876308,-4185.19501305,1
12.4,0.7,0.0147196413661,-38.2577898616,-22.8403888659,57.7573123265,10555525.8107,6.72108136033,8.25039171259,1.22129270199,0.00918138052177,24798.1016468,2178.82739757,-3511.3495866,1
12.8,0.7,0.0147196413661,-22.3676953881,-38.5360617042,57.7484395551,10553904.2539,6.59373452956,8.25039171259,1.20997381852,0.00903219022505,24569.5400661,3527.91808312,-1967.68155161,1
13.2,0.7,0.0147196413661,-0.857355697628,-44.5489257991,57.6194866641,10530337.2713,6.51384583855,8.25039171259,1.20283857973,0.00893973099449,24321.1098473,3964.68751949,-8.36144282117,1
13.6,0.7,0.0147196413661,20.8684084778,-39.3681518013,57.513272448,10510925.9301,6.62642488033,8.25039171259,1.21280467182,0.00907293387242,24424.627409,3527.49497097,1948.01929139,1
14,0.7,0.0147196413661,37.3506475204,-24.2954929659,57.5302448403,10514027.7456,6.74371558593,8.25039171259,1.22322504256,0.00921049348718,24640.8562091,2184.80189335,3488.18692649,1
14.4,0.7,0.0147196413661,44.4479323048,-3.11819859401,57.565308595,10520435.8756,6.80023524536,8.25039171259,1.22825655875,0.00927644784102,24768.3860098,220.034797219,4155.94276986,1
14.8,0.7,0.0147196413661,40.3769552453,18.8425936049,57.58999243,10524947.0075,6.81624820943,8.25039171259,1.22968770762,0.00929494982339,24817.3770873,-1831.01297471,3754.25857429,1
15.2,0.7,0.0147196413661,26.1606151677,36.0688794211,57.6152463171,10529562.3203,6.81383712135,8.25039171259,1.2294828535,0.0092918166139,24835.1796672,-3424.39075422,2395.19115978,1
15.6,0.7,0.0147196413661,5.37099743591,44.232275944,57.6419941072,10534450.6535,6.79779933329,8.25039171259,1.2280680751,0.00927267871486,24830.7785615,-4148.80520469,431.740029749,1
16,0.7,0.0147196413661,-16.7681702663,41.2815977715,57.6719410579,10539923.6542,6.7760523188,8.25039171259,1.22614701075,0.00924681424102,24819.2436625,-3826.61044745,-1631.30471703,1
16.4,0.7,0.0147196413661,-34.694063999,27.9582505153,57.7051300171,10545989.1531,6.74849259004,8.25039171259,1.22371027648,0.00921410793746,24800.3834975,-2544.95836907,-3271.33852078,1
16.8,0.7,0.0147196413661,-43.902513048,7.609940651,57.7403293642,10552422.0635,6.70694695927,8.25039171259,1.22003097527,0.00916499914463,24758.909286,-633.926584983,-4070.68625547,1
17.2,0.7,0.0147196413661,-42.0797456624,-14.6504898768,57.7763644714,10559007.7146,6.636553364,8.25039171259,1.21378750109,0.00908209693188,24667.8591254,1405.36049412,-3824.15034391,1
17.6,0.7,0.0147196413661,-29.6837616273,-33.229747882,57.7920803235,10561879.8891,6.52945575042,8.25039171259,1.20427462629,0.00895642537636,24495.1742546,3028.18209352,-2613.13493637,1
18,0.7,0.0147196413661,-9.82925241051,-43.4594943102,57.6960615393,10544331.8296,6.4134225143,8.25039171259,1.19393824063,0.00882124676974,24212.0567718,3822.45602196,-795.95247079,1
18.4,0.7,0.0147196413661,12.495015442,-42.7693399265,57.5187953867,10511935.2832,6.46527789863,8.25039171259,1.19849760441,0.00888362548764,24151.9608834,3740.0827421,1162.55565215,1
18.8,0.7,0.0147196413661,31.679708584,-31.3326971817,57.4829779445,10505389.4118,6.60435375154,8.25039171259,1.21083559487,0.0090473180672,24360.79876,2770.36369501,2898.74713111,1
19.2,0.7,0.0147196413661,42.9043625912,-12.0232075291,57.525213169,10513108.1748,6.68345112953,8.25039171259,1.21787209129,0.00913977943298,24532.9245681,1031.41985735,3939.20613396,1
19.6,0.7,0.0147196413661,43.348601609,10.3073074653,57.5640808698,10520211.5008,6.7159681318,8.25039171259,1.22077265925,0.00917753372782,24622.3283472,-1016.88703448,3972.79018078,1
20,0.7,0.0147196413661,32.9008033997,30.04794476,57.5995813197,10526699.4397,6.7210663458,8.25039171259,1.22123753013,0.00918312286695,24661.7370593,-2823.0200346,2986.59128595,1
20.4,0.7,0.0147196413661,14.1861462345,42.2385499711,57.6353453798,10533235.5552,6.71260316784,8.25039171259,1.22049798272,0.00917279364524,24678.0094861,-3916.75192816,1241.17880959,1
20.8,0.7,0.0147196413661,-8.09300960341,43.8160363817,57.6730451159,10540125.428,6.69526569698,8.25039171259,1.21897054796,0.00915203916657,24680.5895397,-4020.06557448,-814.018137709,1
21.2,0.7,0.0147196413661,-28.3386658909,34.3840350187,57.7120587837,10547255.4304,6.67035800704,8.25039171259,1.21677057464,0.00912240536971,24671.1227758,-3110.62476705,-2654.54879212,1
21.6,0.7,0.0147196413661,-41.4637740547,16.3124887674,57.7523457934,10554618.1444,6.63364432949,8.25039171259,1.2135213821,0.00907893620967,24642.152264,-1424.44761182,-3811.2037806,1
22,0.7,0.0147196413661,-44.1704383974,-5.85783410711,57.7924618988,10561949.6245,6.57621504219,8.25039171259,1.20843028186,0.00901121911869,24576.8247357,598.683412122,-3988.54581081,1
22.4,0.7,0.0147196413661,-35.7785657283,-26.556281424,57.824793588,10567858.4517,6.49285183721,8.25039171259,1.20103065414,0.0089132322393,24459.336179,2425.47444649,-3153.3990171,1
22.8,0.7,0.0147196413661,-18.3967497765,-40.5820335408,57.7819911104,10560036.0196,6.37315563304,8.25039171259,1.19038164264,0.00877333682938,24214.5558542,3567.96605254,-1544.31652961,1
23.2,0.7,0.0147196413661,3.60754708558,-44.4108934009,57.5868699849,10524376.3603,6.3363823945,8.25039171259,1.187068339,0.00873172991561,23986.7582781,3817.35865515,375.996340683,1
23.6,0.7,0.0147196413661,24.7053893979,-37.0807980408,57.4716624666,10503321.4344,6.47828398654,8.25039171259,1.19963961429,0.00889932121888,24134.5064595,3223.9208854,2228.63453581,1
24,0.7,0.0147196413661,39.595603066,-20.4335524686,57.4986839183,10508259.7811,6.58442719399,8.25039171259,1.20907120121,0.00902375409638,24339.951613,1772.21047229,3583.50839384,1
24.4,0.7,0.0147196413661,44.5367810877,1.34795363136,57.5469035236,10517072.2287,6.63752973351,8.25039171259,1.21380137655,0.00908562642849,24472.5317709,-191.510890055,4037.76865082,1
24.8,0.7,0.0147196413661,38.2873725718,22.7907645811,57.5889361827,10524753.9715,6.65152642334,8.25039171259,1.2150578219,0.00910161830482,24532.6962398,-2135.24058447,3451.12603149,1
25.2,0.7,0.0147196413661,22.4176424791,38.5070273369,57.6299678471,10532252.7759,6.64684215118,8.25039171259,1.21465493836,0.00909569008548,24559.8434242,-3543.86737357,1982.60489522,1
