time,root_dist,x,y,z,rel_vel_mag,Re,alpha_deg,alpha_geom_deg,cl,cd,fx,fy,fz,end_effect_factor
1.2,0.233333333333,0.0350412073374,-6.99508230047,14.2451966717,23.0965094697,6452456.56508,16.8629566116,17.9445491941,1.79497610839,0.0515650907524,8060.58390687,-3575.34181899,-1971.26230999,1
1.6,0.233333333333,0.0350412073374,-13.0289694655,9.06105729333,23.0419343754,6437209.9571,16.4434182255,17.9445491941,1.7929719554,0.047418602823,8033.47760954,-2134.60364482,-3404.27692415,1
2,0.233333333333,0.0350412073374,-15.7891173359,1.60018072639,23.0310673028,6434174.03021,16.3175276605,17.9445491941,1.79238726211,0.0461728255185,8029.2074473,-213.290756366,-3995.15170099,1
2.4,0.233333333333,0.0350412073374,-14.5819941198,-6.26276712764,23.0093971989,6428120.06762,15.9145043253,17.9445491941,1.78929001922,0.0423243161392,8019.42750501,1729.12882675,-3547.70365989,1
2.8,0.233333333333,0.0350412073374,-9.71090904782,-12.5520934537,22.9373878894,6408002.87447,15.4416713771,17.9445491941,1.78001466952,0.0384420833536,7951.68615574,3156.47341429,-2208.22000645,1
3.2,0.233333333333,0.0350412073374,-2.39980102392,-15.6875032956,22.8428327774,6381587.07543,15.1736729625,17.9445491941,1.77467986164,0.036245663829,7875.75071871,3761.05545985,-391.370041659,1
3.6,0.233333333333,0.0350412073374,5.51429581899,-14.881174222,22.77246766,6361929.21916,15.0056017596,17.9445491941,1.7713557626,0.0348654338829,7820.74182584,3434.66595735,1464.48376377,1
4,0.233333333333,0.0350412073374,12.0428366552,-10.3357094532,22.7427983954,6353640.53633,14.8542470358,17.9445491941,1.76617188205,0.0338645886828,7785.38368733,2269.48875355,2917.89101928,1
4.4,0.233333333333,0.0350412073374,15.5454200141,-3.19323052584,22.7198171937,6347220.29323,14.7047758822,17.9445491941,1.76096655437,0.0328857015969,7754.43828497,562.922332039,3618.3009776,1
4.8,0.233333333333,0.0350412073374,15.1419651798,4.75159921498,22.6898237913,6338841.05622,14.5702982618,17.9445491941,1.75624497205,0.0320076880519,7720.08278028,-1251.97810798,3404.79675782,1
5.2,0.233333333333,0.0350412073374,10.9338467044,11.5025128059,22.6676628102,6332649.95762,14.4363699238,17.9445491941,1.75155212064,0.0311326967729,7691.16753199,-2723.29798788,2348.94487763,1
5.6,0.233333333333,0.0350412073374,3.9784224125,15.3632340252,22.6527765266,6328491.18641,14.3152548576,17.9445491941,1.7473162078,0.0303409191236,7668.54036006,-3495.09129462,726.795134,1
6,0.233333333333,0.0350412073374,-3.97664485322,15.3636942275,22.6411183124,6325234.23883,14.1851415641,17.9445491941,1.74277387385,0.029489778959,7647.17466668,-3382.89352523,-1052.6823942,1
6.4,0.233333333333,0.0350412073374,-10.9325157857,11.5037777795,22.6335381037,6323116.56095,14.080567431,17.9445491941,1.73912588358,0.0288055313332,7631.19640132,-2432.46429885,-2546.91311795,1
6.8,0.233333333333,0.0350412073374,-15.1414153164,4.75335111493,22.6243469752,6320548.84147,13.9715749898,17.9445491941,1.73515770808,0.0281161903804,7612.97300053,-885.095035136,-3385.42387281,1
7.2,0.233333333333,0.0350412073374,-15.5457893681,-3.19143189282,22.6059395422,6315406.36907,13.8441592112,17.9445491941,1.72997257435,0.0273888714398,7584.27818913,861.535503797,-3360.31729769,1
7.6,0.233333333333,0.0350412073374,-12.0440324205,-10.3343160228,22.5691209079,6305120.37158,13.7240881916,17.9445491941,1.72503675718,0.026706757829,7543.99638411,2360.40816869,-2495.05439194,1
8,0.233333333333,0.0350412073374,-5.51601754021,-14.880536116,22.510363188,6288705.26627,13.6366674761,17.9445491941,1.72136563075,0.0262152164006,7493.10341742,3241.57382225,-1025.64438717,1
8.4,0.233333333333,0.0350412073374,2.39798595712,-15.6877808486,22.4571358061,6273835.1678,13.6307827142,17.9445491941,1.72097568419,0.0261917448591,7456.32795152,3314.87806546,672.74127468,1
8.8,0.233333333333,0.0350412073374,9.70945670031,-12.5532169259,22.4334456873,6267216.87499,13.6736374603,17.9445491941,1.72260435965,0.0264443755493,7445.5746875,2572.49778504,2197.21426985,1
9.2,0.233333333333,0.0350412073374,14.5812694174,-6.26445422859,22.4364243757,6268049.02921,13.7247940261,17.9445491941,1.724640664,0.0267397300824,7453.86151385,1186.76581024,3179.27043621,1
9.6,0.233333333333,0.0350412073374,15.7893023718,1.59835390814,22.4487718675,6271498.53981,13.7379046515,17.9445491941,1.725200173,0.0268128561727,7463.84232844,-506.046188964,3361.94610565,1
10,0.233333333333,0.0350412073374,13.0300177464,9.05954977542,22.4644262571,6275871.89628,13.7206467484,17.9445491941,1.7245655188,0.0267096611633,7472.34305854,-2074.92070128,2695.29137191,1
10.4,0.233333333333,0.0350412073374,6.99673042891,14.2443872424,22.4811990636,6280557.70412,13.6788281976,17.9445491941,1.72295624952,0.02646449726,7478.55977657,-3119.78969466,1348.70783977,1
10.8,0.233333333333,0.0350412073374,-0.794598566335,15.8500920415,22.4991403498,6285569.94937,13.6104818704,17.9445491941,1.72029013581,0.0260663090112,7482.2384189,-3375.11435833,-334.016612057,1
11.2,0.233333333333,0.0350412073374,-8.38627182082,13.4732048731,22.5173068096,6290645.10124,13.5268049464,17.9445491941,1.71700621849,0.0255802100368,7484.08383055,-2780.68022735,-1924.22268277,1
11.6,0.233333333333,0.0350412073374,-13.8707586499,7.71095707944,22.5314249052,6294589.26425,13.4381537845,17.9445491941,1.71350524395,0.0250667445332,7482.48279675,-1492.07154307,-3020.89736178,1
12,0.233333333333,0.0350412073374,-15.8699930377,0.0112066109682,22.5315424516,6294622.10311,13.334908636,17.9445491941,1.70938518598,0.0244715902058,7469.54010689,160.496059197,-3346.22302198,1
12.4,0.233333333333,0.0350412073374,-13.8816350108,-7.69135969975,22.5106468018,6288784.49927,13.2247280377,17.9445491941,1.70495204651,0.0238386929472,7441.61825063,1750.14464583,-2825.16420888,1
12.8,0.233333333333,0.0350412073374,-8.40529168108,-13.4613474942,22.4596590549,6274540.08615,13.1486527606,17.9445491941,1.70184423146,0.0234043596331,7398.04184107,2875.7567822,-1606.64875056,1
13.2,0.233333333333,0.0350412073374,-0.816982878443,-15.8489540217,22.390237411,6255145.80744,13.1552096741,17.9445491941,1.70199906166,0.023448548005,7352.75053647,3274.7565352,-9.26409101783,1
13.6,0.233333333333,0.0350412073374,6.97660608539,-14.2542545275,22.3399691875,6241102.40711,13.2332441539,17.9445491941,1.70499286093,0.0239062558603,7329.00822167,2867.2398627,1580.59807791,1
14,0.233333333333,0.0350412073374,13.0172099383,-9.0779430505,22.327930068,6237739.04626,13.3334408948,17.9445491941,1.70891035206,0.0244896800233,7333.22980195,1747.84242745,2785.69248766,1
14.4,0.233333333333,0.0350412073374,15.787029268,-1.62065156534,22.3436523362,6242131.36593,13.3930109307,17.9445491941,1.71128684232,0.024833511092,7350.95456281,177.341693097,3299.40160714,1
14.8,0.233333333333,0.0350412073374,14.590102172,6.24385483626,22.3720138887,6250054.71408,13.3976131928,17.9445491941,1.71153130772,0.0248561281713,7370.45464681,-1450.12881711,2979.37165033,1
15.2,0.233333333333,0.0350412073374,9.72717594086,12.539491729,22.4055397632,6259420.81545,13.3619595175,17.9445491941,1.71019655258,0.0246447530754,7388.48224748,-2716.67227281,1903.37521162,1
15.6,0.233333333333,0.0350412073374,2.42013943787,15.6843785247,22.4423516496,6269704.9278,13.3084061604,17.9445491941,1.7081517603,0.0243299530477,7406.45602438,-3300.2320382,346.008239609,1
16,0.233333333333,0.0350412073374,-5.49499623957,14.8883115541,22.4745204287,6278691.89831,13.2122229698,17.9445491941,1.70439281238,0.0237702835814,7415.91834894,-3046.04255327,-1295.87827746,1
16.4,0.233333333333,0.0350412073374,-12.0294252418,10.3513155182,22.5047889832,6287148.00436,13.1170730049,17.9445491941,1.7006541113,0.0232181146048,7424.0945819,-2029.18976434,-2604.53939431,1
16.8,0.233333333333,0.0350412073374,-15.5412666012,3.21338404753,22.5211011722,6291705.12981,13.0193910251,17.9445491941,1.69678174489,0.0226534799556,7422.53205261,-508.228573781,-3249.00656651,1
17.2,0.233333333333,0.0350412073374,-15.1481133795,-4.73196213488,22.513765301,6289655.71231,12.9141914828,17.9445491941,1.69161700085,0.022148592425,7400.26281302,1124.11136958,-3065.03355451,1
17.6,0.233333333333,0.0350412073374,-10.9487516822,-11.4883263013,22.4702812927,6277507.61369,12.8355934744,17.9445491941,1.68755610891,0.0217905096627,7357.85174609,2448.18923354,-2115.36014949,1
18,0.233333333333,0.0350412073374,-3.99833905165,-15.3580626849,22.3919824898,6255633.32895,12.8235632489,17.9445491941,1.68685960141,0.0217395194348,7304.23500954,3142.47949534,-656.440263796,1
18.4,0.233333333333,0.0350412073374,3.95672093045,-15.3688374344,22.3119625626,6233278.21486,12.9037500695,17.9445491941,1.69087097486,0.0221117173272,7265.50451082,3060.0437849,948.973406702,1
18.8,0.233333333333,0.0350412073374,10.9175907871,-11.5179432196,22.2722341025,6222179.30123,13.0286557831,17.9445491941,1.69686598308,0.0227224054607,7259.34853308,2224.51367997,2324.37712747,1
19.2,0.233333333333,0.0350412073374,15.1352393893,-4.77297949234,22.2779644139,6223780.17455,13.1250348793,17.9445491941,1.70064684067,0.0232830689794,7274.82418743,821.994359008,3130.10930957,1
19.6,0.233333333333,0.0350412073374,15.5499143141,3.17127252536,22.3087207262,6232372.54515,13.1561012442,17.9445491941,1.70191022839,0.0234611140412,7298.89876211,-803.803694051,3149.92623148,1
20,0.233333333333,0.0350412073374,12.0574217801,10.3186910324,22.352409827,6244577.94035,13.1323352621,17.9445491941,1.70104079814,0.023319202956,7324.87241618,-2237.28655311,2370.353085,1
20.4,0.233333333333,0.0350412073374,5.53530702032,14.8733715342,22.3973800767,6257141.24923,13.0748536524,17.9445491941,1.69883481715,0.0229822952954,7347.5140789,-3109.16292105,987.669693717,1
20.8,0.233333333333,0.0350412073374,-2.37764315033,15.6908768925,22.4467823256,6270942.7228,12.9930085448,17.9445491941,1.69557244985,0.0225137454759,7369.62357595,-3197.22702697,-645.152142541,1
21.2,0.233333333333,0.0350412073374,-9.69317202606,12.5657956643,22.4889487205,6282722.72065,12.892926712,17.9445491941,1.69050452704,0.0220524319336,7380.1471673,-2475.79249256,-2110.00592841,1
21.6,0.233333333333,0.0350412073374,-14.5731346635,6.28335505009,22.5181837298,6290890.08586,12.7900923202,17.9445491941,1.68528177264,0.0215792996591,7381.5191274,-1136.16705652,-3034.08094214,1
22,0.233333333333,0.0350412073374,-15.7913615267,-1.57788014062,22.5263553348,6293172.98172,12.6932683654,17.9445491941,1.68034376634,0.0211348961557,7369.9410811,476.321301901,-3186.47656767,1
22.4,0.233333333333,0.0350412073374,-13.0417534141,-9.04264742709,22.4980545359,6285266.60628,12.6011077142,17.9445491941,1.67560636933,0.0207137316965,7335.14928651,1946.1306866,-2533.25755412,1
22.8,0.233333333333,0.0350412073374,-7.01519383313,-14.2353033016,22.4252078578,6264915.47801,12.5790368735,17.9445491941,1.67440410347,0.0206161625049,7283.55281227,2907.65718432,-1260.5156748,1
23.2,0.233333333333,0.0350412073374,0.774046654499,-15.8511089953,22.3271654777,6237525.44319,12.6443941126,17.9445491941,1.67764135679,0.0209209311014,7230.87008578,3139.68240906,307.359819326,1
23.6,0.233333333333,0.0350412073374,8.3687954016,-13.4840671954,22.261189223,6219093.70056,12.7909002862,17.9445491941,1.68505472693,0.0215966131981,7212.99818119,2605.40145696,1798.61833118,1
24,0.233333333333,0.0350412073374,13.8607489563,-7.72893543612,22.245552305,6214725.22514,12.9101097526,17.9445491941,1.69112576273,0.0221445249021,7223.10480773,1414.22380787,2854.8505273,1
24.4,0.233333333333,0.0350412073374,15.8699651671,-0.0317836491052,22.2706785594,6221744.73019,12.976261657,17.9445491941,1.69453039533,0.0224467178687,7250.8059588,-149.747783114,3203.35297407,1
24.8,0.233333333333,0.0350412073374,13.8915959662,7.67335429378,22.3154714799,6234258.49875,12.9671081515,17.9445491941,1.69411038646,0.022402231057,7278.63983039,-1691.26351585,2737.6811168,1
25.2,0.233333333333,0.0350412073374,8.42273861123,13.4504378699,22.3683081169,6249019.43505,12.9220296875,17.9445491941,1.69186396308,0.0221925034815,7305.64265074,-2812.52344869,1575.91183931,1
