time,root_dist,x,y,z,rel_vel_mag,Re,alpha_deg,alpha_geom_deg,cl,cd,fx,fy,fz,end_effect_factor
1.2,0.433333333333,0.0270996925116,-12.9623401437,25.0007457883,37.5339874397,9125983.39631,8.9377997473,9.93784700268,1.45984539846,0.0130300635137,16212.1182157,-4125.19864734,-2284.7933817,1
1.6,0.433333333333,0.0270996925116,-23.4658380445,15.5696498626,37.4907503583,9115470.76726,8.69472817523,9.93784700268,1.43612142717,0.0127469794709,15931.197223,-2416.6047628,-3868.84684654,1
2,0.433333333333,0.0270996925116,-28.0731646258,2.22642760232,37.5562547832,9131397.46024,9.04570669358,9.93784700268,1.46964928977,0.0131588385243,16331.5198388,-246.974872625,-4776.91236266,1
2.4,0.433333333333,0.0270996925116,-25.6266545701,-11.6762206008,37.6206797897,9147061.70428,8.79616259149,9.93784700268,1.44611815916,0.0128605046637,16145.3454005,2045.0772231,-4180.0802621,1
2.8,0.433333333333,0.0270996925116,-16.7410330961,-22.6450295396,37.5794391347,9137034.48474,8.2774108333,9.93784700268,1.39552240742,0.0122544521852,15585.7681047,3560.74482274,-2484.12522111,1
3.2,0.433333333333,0.0270996925116,-3.64895630559,-27.9239085705,37.4785115768,9112495.0398,8.05439045397,9.93784700268,1.37371983304,0.011996881561,15276.1961805,4170.16644053,-428.881509533,1
3.6,0.433333333333,0.0270996925116,10.359979771,-26.1864539623,37.4298518433,9100663.9515,8.05622099367,9.93784700268,1.37386633687,0.0120008185892,15238.0536595,3845.20968119,1644.7108086,1
4,0.433333333333,0.0270996925116,21.7658033791,-17.8692292849,37.4515720428,9105944.98327,8.02081892385,9.93784700268,1.37043143366,0.0119585153465,15220.1421834,2554.87909496,3292.26705543,1
4.4,0.433333333333,0.0270996925116,27.7026168718,-5.06207175232,37.4488141317,9105274.42698,7.89937753438,9.93784700268,1.35808277473,0.0118218030351,15089.4066155,625.636907571,4049.43586849,1
4.8,0.433333333333,0.0270996925116,26.6786998437,9.01701317648,37.4189490535,9098013.05599,7.82341621244,9.93784700268,1.3502758739,0.0117379393443,14984.0779488,-1400.78609444,3797.63007295,1
5.2,0.433333333333,0.0270996925116,18.9513280076,20.8304277134,37.4026502743,9094050.18397,7.77362925493,9.93784700268,1.34516171114,0.01168282215,14917.7882511,-3043.63583345,2620.10155143,1
5.6,0.433333333333,0.0270996925116,6.46212851155,27.4098603987,37.4006240353,9093557.52587,7.70240180382,9.93784700268,1.33785755365,0.0116032565917,14840.0837822,-3893.02395221,805.759294212,1
6,0.433333333333,0.0270996925116,-7.65078528445,27.1021223616,37.3965929216,9092577.40413,7.6298535734,9.93784700268,1.33041704753,0.0115222686991,14759.3140429,-3755.35386549,-1172.25123388,1
6.4,0.433333333333,0.0270996925116,-19.8413155423,19.9845377611,37.3895575577,9090866.83144,7.5634463065,9.93784700268,1.32360489167,0.0114482221889,14682.6980105,-2688.16561974,-2819.46947604,1
6.8,0.433333333333,0.0270996925116,-27.0463943783,7.84551484,37.3944715133,9092061.60663,7.51410927696,9.93784700268,1.31854882705,0.0113929185866,14633.7595184,-975.618440991,-3744.23649349,1
7.2,0.433333333333,0.0270996925116,-27.455629208,-6.26482056944,37.3963023329,9092506.75063,7.42280672554,9.93784700268,1.30918848693,0.0112907861242,14537.3401022,951.423814352,-3698.82524584,1
7.6,0.433333333333,0.0270996925116,-20.9661931617,-18.8010184904,37.3772485683,9087874.03368,7.29122754823,9.93784700268,1.2956901745,0.0111441210888,14381.3427547,2574.57093512,-2717.33961107,1
8,0.433333333333,0.0270996925116,-9.20866199929,-26.6131564486,37.3166592674,9073142.4,7.17023091929,9.93784700268,1.28326367711,0.0110100902719,14204.9705905,3495.73186375,-1103.26744309,1
8.4,0.433333333333,0.0270996925116,4.86269442133,-27.7383084369,37.2432692296,9055298.40546,7.15396285223,9.93784700268,1.28157045608,0.0109934222858,14131.51105,3569.18926541,727.054811186,1
8.8,0.433333333333,0.0270996925116,17.7122202247,-21.8937618213,37.2237389417,9050549.82705,7.24673231703,9.93784700268,1.29106977399,0.0110978471989,14215.4417428,2802.86142374,2397.58213935,1
9.2,0.433333333333,0.0270996925116,26.1112642385,-10.5480534623,37.2391819581,9054304.62958,7.32406573214,9.93784700268,1.29900049172,0.0111841812312,14309.6597157,1302.90961471,3498.54352364,1
9.6,0.433333333333,0.0270996925116,27.9494308173,3.44802392182,37.2531655875,9057704.59793,7.35189673622,9.93784700268,1.3018583424,0.0112150330289,14350.1115567,-561.188803675,3708.99314409,1
10,0.433333333333,0.0270996925116,22.7648508796,16.577729531,37.2651427544,9060616.71663,7.35276683099,9.93784700268,1.30195251597,0.0112157126636,14360.3217976,-2292.30469861,2972.99363095,1
10.4,0.433333333333,0.0270996925116,11.8602339846,25.5420124854,37.2783398902,9063825.45756,7.33768033735,9.93784700268,1.30041182637,0.011198487025,14354.4654443,-3441.93365788,1484.92377645,1
10.8,0.433333333333,0.0270996925116,-2.02445851346,28.0884517142,37.295964919,9068110.79284,7.30290942394,9.93784700268,1.29685524469,0.0111591174374,14330.9892254,-3714.85053986,-370.35958246,1
11.2,0.433333333333,0.0270996925116,-15.4004730687,23.5772131779,37.315020093,9072743.85247,7.25670421365,9.93784700268,1.29212676581,0.0111069359274,14296.2963756,-3050.98490786,-2114.42927537,1
11.6,0.433333333333,0.0270996925116,-24.9068696949,13.1418185185,37.3369341866,9078072.02747,7.2065300683,9.93784700268,1.28699189114,0.0110502816082,14259.4135873,-1631.56026664,-3308.90810012,1
12,0.433333333333,0.0270996925116,-28.1550124938,-0.595670585081,37.352462306,9081847.52189,7.12343112256,9.93784700268,1.27847875371,0.0109569637589,14182.123194,177.080285158,-3643.28466712,1
12.4,0.433333333333,0.0270996925116,-24.3287530552,-14.1834878204,37.3515172378,9081617.73877,7.01817037688,9.93784700268,1.26768770456,0.0108392091167,14068.2558685,1892.97484669,-3051.59868498,1
12.8,0.433333333333,0.0270996925116,-14.3895009448,-24.2074743526,37.3086613901,9071197.80256,6.89589131708,9.93784700268,1.25465790688,0.0107079286384,13899.204994,3070.9122727,-1713.34282211,1
13.2,0.433333333333,0.0270996925116,-0.834654001885,-28.1489414485,37.2180914304,9049176.69572,6.85079491701,9.93784700268,1.24979999602,0.0106610997189,13780.9727554,3475.14030706,-7.80659592779,1
13.6,0.433333333333,0.0270996925116,12.9299132578,-25.0175317552,37.150334436,9032702.3148,6.9392080793,9.93784700268,1.25925227852,0.0107572457125,13829.3298225,3072.73600783,1696.33261403,1
14,0.433333333333,0.0270996925116,23.4456306971,-15.6000626021,37.148738134,9032314.19122,7.05147079055,9.93784700268,1.27103752237,0.0108803563323,13950.6526663,1895.18187057,3024.8674941,1
14.4,0.433333333333,0.0270996925116,28.0702542397,-2.26282542187,37.1757693622,9038886.54222,7.11904629777,9.93784700268,1.27796945792,0.0109556633969,14042.9530999,191.385912582,3605.54062667,1
14.8,0.433333333333,0.0270996925116,25.641772427,11.6429832421,37.2038233948,9045707.57706,7.14613488082,9.93784700268,1.28075455484,0.0109854727123,14093.1079134,-1591.04359679,3263.35118216,1
15.2,0.433333333333,0.0270996925116,16.77038059,22.6233040655,37.2346438738,9053201.24343,7.1359085509,9.93784700268,1.27971732984,0.0109733647387,14105.6748372,-2975.23013689,2081.62393393,1
15.6,0.433333333333,0.0270996925116,3.68515940384,27.9191538579,37.2663461082,9060909.29909,7.11159499493,9.93784700268,1.27723645741,0.0109454663839,14103.8334287,-3604.83867026,375.624728597,1
16,0.433333333333,0.0270996925116,-10.3260176822,26.1998647096,37.299228409,9068904.27516,7.06767048132,9.93784700268,1.27274539292,0.0108956117619,14081.7913235,-3318.55282984,-1414.18534361,1
16.4,0.433333333333,0.0270996925116,-21.7426158239,17.8974358249,37.3339520313,9077346.94865,7.01321584405,9.93784700268,1.26717448353,0.010833990138,14049.6447214,-2201.684442,-2829.29118298,1
16.8,0.433333333333,0.0270996925116,-27.6960300985,5.0979867357,37.3615755946,9084063.31953,6.93606906117,9.93784700268,1.25897816654,0.010750103848,13984.1851182,-546.497342197,-3506.07799533,1
17.2,0.433333333333,0.0270996925116,-26.6903688855,-8.98241397016,37.3752979938,9087399.77259,6.84189218768,9.93784700268,1.24889165614,0.0106488245835,13888.0701646,1206.79895656,-3285.26842022,1
17.6,0.433333333333,0.0270996925116,-18.9783208291,-20.8058378943,37.3502706793,9081314.65154,6.73245123358,9.93784700268,1.23715855383,0.0105318303681,13745.7177728,2601.25826717,-2245.37542967,1
18,0.433333333333,0.0270996925116,-6.49766272975,-27.4014585565,37.2598020381,9059318.17918,6.65249801712,9.93784700268,1.22856687689,0.0104475018346,13588.9065583,3306.08265195,-688.923809666,1
18.4,0.433333333333,0.0270996925116,7.61563821654,-27.1120195952,37.1481596896,9032173.54872,6.70529746687,9.93784700268,1.23419227037,0.0105060188014,13566.3587826,3232.25794972,1004.19654196,1
18.8,0.433333333333,0.0270996925116,19.8153868939,-20.0102472303,37.1080216303,9022414.4134,6.83075179749,9.93784700268,1.2476208904,0.0106414719413,13676.8968085,2379.75449494,2489.32439151,1
19.2,0.433333333333,0.0270996925116,27.0361991417,-7.88057662497,37.129904144,9027734.91011,6.92776848807,9.93784700268,1.2580207238,0.0107453210898,13801.3083324,886.974403474,3385.59138151,1
19.6,0.433333333333,0.0270996925116,27.4637291012,6.22921630925,37.1671179978,9036783.05646,6.96981409944,9.93784700268,1.26253614482,0.0107898191859,13876.0537438,-874.747374304,3419.4643423,1
20,0.433333333333,0.0270996925116,20.9905529557,18.7738179012,37.2064293074,9046341.17653,6.9789866668,9.93784700268,1.26353049552,0.0107989594231,13915.8092052,-2432.77080917,2574.44617015,1
20.4,0.433333333333,0.0270996925116,9.24316090172,26.6011941183,37.2493871745,9056785.91766,6.95588937666,9.93784700268,1.26106864863,0.0107733847576,13922.2006608,-3372.32580183,1069.17177938,1
20.8,0.433333333333,0.0270996925116,-4.8267248176,27.7445900944,37.293149175,9067426.17511,6.91678590681,9.93784700268,1.2568920249,0.0107306281569,13911.103882,-3454.8905494,-699.073896553,1
21.2,0.433333333333,0.0270996925116,-17.6838178643,21.9167090987,37.3376098206,9078236.30058,6.86632403806,9.93784700268,1.25149844893,0.0106756920762,13887.5243129,-2667.23798823,-2275.52205917,1
21.6,0.433333333333,0.0270996925116,-26.0975656739,10.5819004849,37.3736671194,9087003.2431,6.80191298981,9.93784700268,1.24460763031,0.0106059620761,13841.635376,-1218.10983727,-3257.72000357,1
22,0.433333333333,0.0270996925116,-27.9538780343,-3.41178176577,37.4012993826,9093721.72925,6.71437959627,9.93784700268,1.23523670038,0.0105115981573,13762.9653828,509.54992519,-3398.06441624,1
22.4,0.433333333333,0.0270996925116,-22.7863264431,-16.5481986694,37.3954496755,9092299.4362,6.60821603878,9.93784700268,1.22386007364,0.0103978138199,13638.1787291,2059.25098938,-2678.08258156,1
22.8,0.433333333333,0.0270996925116,-11.8933418119,-25.5266130248,37.3249418258,9075156.21456,6.5190806547,9.93784700268,1.21429044908,0.0103032785897,13485.7029584,3045.16514091,-1318.57136634,1
23.2,0.433333333333,0.0270996925116,1.98803729942,-28.0910530182,37.193985675,9043315.64181,6.52162657762,9.93784700268,1.21452764655,0.0103080179241,13393.7145409,3280.52441796,322.630274846,1
23.6,0.433333333333,0.0270996925116,15.369889887,-23.5971616267,37.1081685275,9022450.12986,6.64812037851,9.93784700268,1.22805561951,0.0104452431407,13473.1795644,2753.66646478,1902.95729179,1
24,0.433333333333,0.0270996925116,24.8898090646,-13.1741017418,37.1083407878,9022492.0131,6.76931341176,9.93784700268,1.24103908451,0.0105754547318,13608.61747,1512.63910761,3057.52112787,1
24.4,0.433333333333,0.0270996925116,28.1557611741,0.559164269294,37.1452018102,9031454.3723,6.82732817573,9.93784700268,1.24726484039,0.0106371544931,13700.6094011,-162.902379778,3445.09452251,1
24.8,0.433333333333,0.0270996925116,24.3471229281,14.1519312144,37.189433132,9042208.74017,6.85509575632,9.93784700268,1.25025246245,0.0106662151882,13764.4820758,-1826.39759907,2952.89451234,1
25.2,0.433333333333,0.0270996925116,14.4208762826,24.188796564,37.2373170643,9053851.2008,6.84424831544,9.93784700268,1.24910418134,0.0106537377844,13787.9270508,-3032.64341775,1697.16968922,1
