time,root_dist,x,y,z,rel_vel_mag,Re,alpha_deg,alpha_geom_deg,cl,cd,fx,fy,fz,end_effect_factor
1.2,0.169430894309,0.0392715922745,-5.08871252495,10.8085333243,18.8727391421,5163248.54944,23.1412708707,24.2472958005,1.62094300836,0.139698262021,4206.45125846,-2223.4133456,-1208.09280076,1
1.6,0.169430894309,0.0392715922745,-9.69440902296,6.98124784546,18.804733283,5144643.34591,22.6811132755,24.2472958005,1.62286539092,0.134085022492,4191.19406332,-1338.56149037,-2106.21536904,1
2,0.169430894309,0.0392715922745,-11.8642284672,1.39981093836,18.7550186921,5131042.31071,22.3643579939,24.2472958005,1.62463074207,0.130175920278,4180.33625148,-146.428990579,-2467.47870751,1
2.4,0.169430894309,0.0392715922745,-11.0529686299,-4.53335110602,18.698438645,5115563.00777,21.9110509317,24.2472958005,1.62714826825,0.12459494775,4171.21078373,1056.97359282,-2201.12014343,1
2.8,0.169430894309,0.0392715922745,-7.46447166574,-9.32743536753,18.6140818623,5092484.47992,21.4587715138,24.2472958005,1.6289938374,0.119148758125,4148.1384514,1961.2846146,-1388.89965432,1
3.2,0.169430894309,0.0392715922745,-2.00040547334,-11.7778506412,18.512183535,5064606.89487,21.1573697032,24.2472958005,1.62976031695,0.115564239397,4111.33800241,2351.13146531,-258.140179692,1
3.6,0.169430894309,0.0392715922745,3.96629494661,-11.2688904592,18.4304667277,5042250.61772,20.9374460966,24.2472958005,1.62977095506,0.113012338135,4080.04396762,2152.90329459,903.685672975,1
4,0.169430894309,0.0392715922745,8.9363996147,-7.92843929853,18.3836310076,5029437.1908,20.7514299391,24.2472958005,1.62910176423,0.110942239119,4061.99161531,1430.63640905,1818.36655731,1
4.4,0.169430894309,0.0392715922745,11.661089352,-2.59583953822,18.3461931683,5019194.85832,20.5600087241,24.2472958005,1.62851972705,0.108801355208,4048.40880276,365.292014848,2265.6552531,1
4.8,0.169430894309,0.0392715922745,11.4557417959,3.38900688834,18.3115441147,5009715.48838,20.3870717087,24.2472958005,1.62800106693,0.106866311358,4035.78241822,-774.439124583,2142.15229588,1
5.2,0.169430894309,0.0392715922745,8.37195384094,8.52231052411,18.2851648712,5002498.59265,20.2326525091,24.2472958005,1.62758414703,0.10513384805,4026.61503491,-1706.26157643,1487.8962917,1
5.6,0.169430894309,0.0392715922745,3.18457708457,11.5142458102,18.2660965695,4997281.84164,20.0716742312,24.2472958005,1.62722230909,0.103320657406,4020.9240891,-2201.9474443,470.202431548,1
6,0.169430894309,0.0392715922745,-2.80297616817,11.6130406176,18.2509777933,4993145.61114,19.9186925058,24.2472958005,1.62752049517,0.101546280452,4018.27163024,-2144.03829908,-654.747114654,1
6.4,0.169430894309,0.0392715922745,-8.08623632638,8.79387115315,18.2351621331,4988818.72545,19.7727208327,24.2472958005,1.62830871487,0.0998134664555,4016.25320266,-1550.6621533,-1606.72310249,1
6.8,0.169430894309,0.0392715922745,-11.3376988296,3.76509933904,18.2206915592,4984859.83167,19.6446612903,24.2472958005,1.62899200776,0.0982938738399,4014.19294379,-573.936098852,-2149.77412909,1
7.2,0.169430894309,0.0392715922745,-11.7403811384,-2.2097145766,18.1962475896,4978172.39274,19.5158041643,24.2472958005,1.62959823333,0.0967721968681,4007.57370849,539.011851749,-2147.9970199,1
7.6,0.169430894309,0.0392715922745,-9.19310280998,-7.62930196737,18.1543690392,4966715.16,19.4025270018,24.2472958005,1.62996357764,0.0954497212742,3992.39787209,1503.89548329,-1605.95515478,1
8,0.169430894309,0.0392715922745,-4.33590872138,-11.1319038508,18.0987578747,4951500.92626,19.3408018297,24.2472958005,1.62989536544,0.0947534750319,3969.13828662,2078.86959802,-669.399545845,1
8.4,0.169430894309,0.0392715922745,1.61075255772,-11.8374348565,18.0501727122,4938208.88276,19.3422488512,24.2472958005,1.62949618644,0.0948066271538,3946.93948913,2130.46864187,421.065647128,1
8.8,0.169430894309,0.0392715922745,7.15268620614,-9.56861890874,18.0244163492,4931162.39614,19.3758791367,24.2472958005,1.62908703403,0.0952271779017,3934.06780007,1654.37337731,1398.42871255,1
9.2,0.169430894309,0.0392715922745,10.8973917655,-4.89553270775,18.0224845142,4930633.88016,19.4150677407,24.2472958005,1.62883602281,0.0956964975849,3931.84244228,768.25552628,2026.24867804,1
9.6,0.169430894309,0.0392715922745,11.9039514013,1.00763526106,18.0317497082,4933168.67383,19.4093288262,24.2472958005,1.62894437598,0.0956211622217,3936.24731726,-311.861079208,2146.63273341,1
10,0.169430894309,0.0392715922745,9.919450726,6.65761857413,18.0449288296,4936774.24897,19.3662832888,24.2472958005,1.6293090797,0.0950974823359,3943.72288832,-1315.61969373,1727.11508179,1
10.4,0.169430894309,0.0392715922745,5.44252762941,10.6347675474,18.0610106114,4941173.94082,19.3033558373,24.2472958005,1.62981845595,0.0943341971338,3953.22156398,-1990.36881496,872.421557207,1
10.8,0.169430894309,0.0392715922745,-0.401918555568,11.9397591793,18.080742633,4946572.2739,19.2159258352,24.2472958005,1.63050804717,0.0932755095135,3965.25911778,-2165.82386558,-203.406516818,1
11.2,0.169430894309,0.0392715922745,-6.14537620327,10.2446932167,18.0949444374,4950457.6371,19.106559214,24.2472958005,1.63128869895,0.0919588322256,3975.5625612,-1794.95465855,-1229.04202336,1
11.6,0.169430894309,0.0392715922745,-10.3447086913,5.97548239697,18.1047474197,4953139.56015,18.9999681886,24.2472958005,1.63201846496,0.0906785084057,3983.7759873,-972.432616685,-1944.86682308,1
12,0.169430894309,0.0392715922745,-11.9447658166,0.20483498406,18.0990434472,4951579.05389,18.8835822332,24.2472958005,1.63215850359,0.089373739578,3984.11082472,93.4140564704,-2166.21847036,1
12.4,0.169430894309,0.0392715922745,-10.5435073489,-5.61728053137,18.0744037802,4944838.07558,18.8038251962,24.2472958005,1.63207882189,0.0884952698181,3974.81827814,1127.99402085,-1840.6028291,1
12.8,0.169430894309,0.0392715922745,-6.49302214059,-10.0279634655,18.0236865214,4930962.72813,18.7593914501,24.2472958005,1.63172004615,0.0880338368593,3952.69670233,1866.76561244,-1054.79231867,1
13.2,0.169430894309,0.0392715922745,-0.811060108413,-11.9189583976,17.9615331472,4913958.66123,18.7879304674,24.2472958005,1.63114911116,0.0884017437769,3923.606909,2129.63313341,-16.3897652668,1
13.6,0.169430894309,0.0392715922745,5.0746938932,-10.8151222681,17.9145456257,4901103.70412,18.8752513757,24.2472958005,1.6306185839,0.0894191596496,3900.08195931,1862.86004255,1014.99914907,1
14,0.169430894309,0.0392715922745,9.68534898159,-6.99381175676,17.9002315965,4897187.63818,18.9804039823,24.2472958005,1.63033876909,0.0906123795321,3891.00664026,1136.75510117,1791.89922489,1
14.4,0.169430894309,0.0392715922745,11.8624034981,-1.41519293123,17.9109571115,4900121.94992,19.0217989606,24.2472958005,1.63026999354,0.091084835631,3894.65096508,124.692467868,2122.56746194,1
14.8,0.169430894309,0.0392715922745,11.0588372861,4.51901600606,17.9372192497,4907306.80771,19.0179042238,24.2472958005,1.6305120472,0.091018612813,3906.69532455,-923.811924707,1922.2267525,1
15.2,0.169430894309,0.0392715922745,7.47655935247,9.31774908619,17.9708834457,4916516.73797,18.955941124,24.2472958005,1.63096786571,0.0902841005246,3923.69952075,-1745.60481727,1235.86747281,1
15.6,0.169430894309,0.0392715922745,2.01567496379,11.7752470133,18.0056211594,4926020.36372,18.8590885385,24.2472958005,1.63141070735,0.0891687112867,3941.94855118,-2130.8474239,233.871951443,1
16,0.169430894309,0.0392715922745,-3.95168035887,11.2740236884,18.0375153596,4934746.05436,18.738381809,24.2472958005,1.63187051397,0.0877870972823,3959.55343043,-1979.44697912,-830.945188275,1
16.4,0.169430894309,0.0392715922745,-8.9261120812,7.94001957794,18.0633561168,4941815.62972,18.6172187255,24.2472958005,1.63228310626,0.0864048312746,3974.44699461,-1328.35000701,-1688.47637154,1
16.8,0.169430894309,0.0392715922745,-11.6577137819,2.61095713536,18.0741428038,4944766.67703,18.4991617924,24.2472958005,1.63256425361,0.0850688449511,3982.37503606,-341.588358967,-2118.90920747,1
17.2,0.169430894309,0.0392715922745,-11.4601263558,-3.37415051424,18.0603787089,4941001.06345,18.3954533831,24.2472958005,1.63261111004,0.0839128810159,3978.64798526,727.081516551,-2011.19087625,1
17.6,0.169430894309,0.0392715922745,-8.38299683924,-8.51144827732,18.0150989018,4928613.30686,18.3497979183,24.2472958005,1.63229093167,0.0834338607761,3958.98018673,1601.77520507,-1397.00224733,1
18,0.169430894309,0.0392715922745,-3.19950378935,-11.5101070059,17.9440537606,4909176.60934,18.3982356504,24.2472958005,1.63159996711,0.084032648105,3925.25122283,2063.01920501,-441.047389791,1
18.4,0.169430894309,0.0392715922745,2.78791633289,-11.6166651973,17.8732175887,4889797.08213,18.5110619776,24.2472958005,1.63081750718,0.0853551993917,3890.22283792,2005.4197439,611.437313843,1
18.8,0.169430894309,0.0392715922745,8.07482738777,-8.80434838258,17.835139448,4879379.57446,18.6498206539,24.2472958005,1.63028432108,0.0869443004659,3869.58766789,1454.21444657,1504.79807264,1
19.2,0.169430894309,0.0392715922745,11.332807468,-3.77979664487,17.8347576145,4879275.11154,18.7388839095,24.2472958005,1.63014901023,0.0879460135861,3867.25756505,542.308898854,2024.72152799,1
19.6,0.169430894309,0.0392715922745,11.7432363875,2.19449013017,17.8608960554,4886426.12795,18.7469839555,24.2472958005,1.63035872066,0.0880173344481,3878.89133953,-510.017847652,2040.1294441,1
20,0.169430894309,0.0392715922745,9.20298724232,7.61737576872,17.9014296869,4897515.41459,18.6986687538,24.2472958005,1.63077577178,0.0874434001802,3898.45869041,-1441.60546723,1542.2206928,1
20.4,0.169430894309,0.0392715922745,4.35033871344,11.1262725503,17.9477871304,4910197.99349,18.604850561,24.2472958005,1.63131442936,0.0863532985895,3921.86511618,-2016.36059729,651.130274949,1
20.8,0.169430894309,0.0392715922745,-1.59540277483,11.8395134094,17.9958507633,4923347.35568,18.4842971305,24.2472958005,1.63191380261,0.08496111399,3946.81191685,-2085.97860514,-410.743236745,1
21.2,0.169430894309,0.0392715922745,-7.14027351362,9.57788504499,18.0337956249,4933728.40054,18.3461458582,24.2472958005,1.63245895715,0.0833785544007,3967.65818631,-1627.40490277,-1374.08445091,1
21.6,0.169430894309,0.0392715922745,-10.8910350531,4.90965816081,18.0584600186,4940476.14361,18.2224993514,24.2472958005,1.63286999358,0.0819691223006,3982.0994155,-756.361425114,-1992.31009887,1
22,0.169430894309,0.0392715922745,-11.9052478958,-0.992199739724,18.060377101,4941000.62356,18.1176190876,24.2472958005,1.63305390874,0.0807880660165,3985.60887432,305.074512042,-2105.26266662,1
22.4,0.169430894309,0.0392715922745,-9.9280746622,-6.6447514089,18.0268843117,4931837.58714,18.068254517,24.2472958005,1.63283728757,0.0802584854525,3971.40433589,1282.11963968,-1684.46037037,1
22.8,0.169430894309,0.0392715922745,-5.45631210387,-10.6277018216,17.9574973678,4912854.54317,18.0947780819,24.2472958005,1.6321845888,0.0806098477264,3938.86835798,1923.61795682,-844.268245252,1
23.2,0.169430894309,0.0392715922745,0.386437114996,-11.9402702708,17.8729209136,4889715.91706,18.2091084628,24.2472958005,1.63126833593,0.0819601125721,3897.42771546,2075.40934532,193.503350122,1
23.6,0.169430894309,0.0392715922745,6.1320877589,-10.2526527056,17.8109807997,4872770.19441,18.3714512549,24.2472958005,1.63048771606,0.0838327070892,3865.3663364,1713.66227462,1171.10088126,1
24,0.169430894309,0.0392715922745,10.3369521797,-5.98889033285,17.7931669505,4867896.63947,18.506551325,24.2472958005,1.63013576987,0.0853652459594,3854.05763556,930.700496393,1856.32062732,1
24.4,0.169430894309,0.0392715922745,11.9444901868,-0.220322406214,17.8130397026,4873333.47393,18.5568425498,24.2472958005,1.63023266551,0.0859156182925,3861.83388681,-87.268590989,2081.64451909,1
24.8,0.169430894309,0.0392715922745,10.5507818573,5.60360508824,17.8547684066,4884749.71132,18.5320195497,24.2472958005,1.63062758766,0.0856048549725,3881.33810866,-1091.39365221,1785.70879011,1
25.2,0.169430894309,0.0392715922745,6.50601894928,10.0195361777,17.9071224031,4899072.84134,18.4497688053,24.2472958005,1.63120210845,0.0846402254095,3907.14135115,-1829.34915648,1036.38528093,1
