time,root_dist,x,y,z,rel_vel_mag,Re,alpha_deg,alpha_geom_deg,cl,cd,fx,fy,fz,end_effect_factor
1.2,0.972195121951,0.00177233577963,-29.0424246463,53.9781591612,78.5482272143,6944462.12169,7.88905700237,8.17978852098,1.29733201613,0.0108773598246,11842.5292259,-1379.05492152,-763.884600773,1
1.6,0.972195121951,0.00177233577963,-51.5874677549,33.1034328493,78.5122260623,6941279.25373,7.88498507249,8.17978852098,1.29704113982,0.01087305086,11829.1327649,-833.725433598,-1334.89902724,1
2,0.972195121951,0.00177233577963,-61.1703252706,3.91093365526,78.5611967102,6945608.75703,8.23925802762,8.17978852098,1.31858982102,0.0113232150386,12030.8916326,-86.3390816056,-1671.75150807,1
2.4,0.972195121951,0.00177233577963,-55.3831492601,-26.2642508709,78.6824717068,6956330.7001,8.21305951073,8.17978852098,1.31715005562,0.0112866416399,12055.620606,734.893292118,-1501.86687649,1
2.8,0.972195121951,0.00177233577963,-35.6800612913,-49.8401175963,78.7368661558,6961139.72258,7.86213947562,8.17978852098,1.29563051458,0.0108418036964,11884.5867107,1293.09032988,-901.992165114,1
3.2,0.972195121951,0.00177233577963,-7.01178087276,-60.8928487161,78.628688961,6951575.75839,7.68120634577,8.17978852098,1.28348057904,0.0106255887292,11745.5251885,1513.51497788,-155.563330228,1
3.6,0.972195121951,0.00177233577963,23.418322891,-56.6452667815,78.5355051847,6943337.36489,7.93823385076,8.17978852098,1.30061081312,0.0109368631647,11867.2947927,1461.70471769,625.346738428,1
4,0.972195121951,0.00177233577963,47.9641942859,-38.1646454493,78.6357507972,6952200.09654,7.94708429489,8.17978852098,1.30125683239,0.010945808198,11903.2775624,978.687281965,1261.36026724,1
4.4,0.972195121951,0.00177233577963,60.458286146,-10.0945397147,78.6470459239,6953198.70061,7.83125488884,8.17978852098,1.29351967632,0.0108060763774,11838.9905678,238.719855571,1545.90419762,1
4.8,0.972195121951,0.00177233577963,57.7612558256,20.5119823813,78.6170949647,6950550.73122,7.78805648056,8.17978852098,1.29061725362,0.0107545095852,11804.5683846,-536.820293181,1455.00757598,1
5.2,0.972195121951,0.00177233577963,40.5507758116,45.9645371656,78.613928016,6950270.74074,7.7997279271,8.17978852098,1.29139581763,0.0107686234262,11810.4312733,-1177.82851577,1013.76236021,1
5.6,0.972195121951,0.00177233577963,13.1512575508,59.8677586068,78.6343364716,6952075.05577,7.78220537943,8.17978852098,1.29023451168,0.0107471876647,11806.3974844,-1517.78790392,314.012377631,1
6,0.972195121951,0.00177233577963,-17.5527268636,58.7282374622,78.6412587874,6952687.05889,7.73795440416,8.17978852098,1.2872797321,0.0106937680584,11782.5880456,-1467.92035714,-458.353593041,1
6.4,0.972195121951,0.00177233577963,-43.846304775,42.8322968489,78.6354161875,6952170.51364,7.71337374694,8.17978852098,1.28563386506,0.010664243475,11766.4125177,-1056.18214229,-1107.96114187,1
6.8,0.972195121951,0.00177233577963,-59.1227894893,16.1740489294,78.6466394911,6953162.76782,7.71092107768,8.17978852098,1.28547504351,0.010661118774,11768.3807609,-385.775160456,-1481.06143411,1
7.2,0.972195121951,0.00177233577963,-59.543717157,-14.5481903649,78.6814390984,6956239.40701,7.69213966702,8.17978852098,1.28423515352,0.0106379725039,11767.9213297,380.435191442,-1478.45362972,1
7.6,0.972195121951,0.00177233577963,-45.0033228939,-41.6149615436,78.7425673322,6961643.76455,7.62418078616,8.17978852098,1.2797171056,0.0105552466895,11746.4909219,1038.71293658,-1096.1083907,1
8,0.972195121951,0.00177233577963,-19.1551159191,-58.2253005994,78.7520322576,6962480.56022,7.50047821749,8.17978852098,1.27144659262,0.0104062035712,11676.4950682,1407.81980684,-444.170147176,1
8.4,0.972195121951,0.00177233577963,11.5061237243,-60.2055912072,78.5276817188,6942645.69094,7.49194898497,8.17978852098,1.27079195225,0.0103988957523,11604.299337,1435.84741556,292.624447387,1
8.8,0.972195121951,0.00177233577963,39.2762636945,-47.0582533247,78.5039340128,6940546.15221,7.60911843443,8.17978852098,1.27860965391,0.0105405089496,11665.6851709,1137.21621768,972.968701214,1
9.2,0.972195121951,0.00177233577963,57.1776072,-22.0867682255,78.5602495098,6945525.01488,7.64303749543,8.17978852098,1.28089966765,0.0105805954388,11702.4871851,526.228431791,1413.42512118,1
9.6,0.972195121951,0.00177233577963,60.7121521684,8.43437459761,78.5728928015,6946642.81045,7.63880660625,8.17978852098,1.28062240406,0.010575312139,11703.8279072,-225.667917251,1490.54215137,1
10,0.972195121951,0.00177233577963,48.9917870123,36.8362443947,78.580009298,6947271.98111,7.63045644471,8.17978852098,1.28006745782,0.0105651448075,11701.0879691,-919.382008015,1192.16100572,1
10.4,0.972195121951,0.00177233577963,24.9614430298,55.9824120384,78.5920023059,6948332.28499,7.61899695299,8.17978852098,1.27930673594,0.0105511613309,11697.9952302,-1379.9076532,595.171331264,1
10.8,0.972195121951,0.00177233577963,-5.34086721316,61.0620932591,78.6051478904,6949494.48835,7.6064974988,8.17978852098,1.27847688671,0.0105359106964,11694.6351682,-1492.42923149,-148.929819772,1
11.2,0.972195121951,0.00177233577963,-34.3011981914,50.7989359967,78.6200957299,6950816.02937,7.59579421136,8.17978852098,1.27776771635,0.0105228018032,11692.8648044,-1230.70466923,-853.087198021,1
11.6,0.972195121951,0.00177233577963,-54.642798374,27.7717244987,78.6428989782,6952832.06843,7.58577499755,8.17978852098,1.2771073759,0.0105104097697,11693.8554417,-661.279789959,-1341.43682297,1
12,0.972195121951,0.00177233577963,-61.2545117321,-2.23358192922,78.674730505,6955646.29913,7.56704290775,8.17978852098,1.27586797709,0.0104874019045,11692.4383838,72.5586071643,-1489.86143666,1
12.4,0.972195121951,0.00177233577963,-52.4750383539,-31.6776647739,78.7294264046,6960481.97291,7.5249310578,8.17978852098,1.27307350065,0.010435943496,11684.11363,781.3974808,-1259.3840286,1
12.8,0.972195121951,0.00177233577963,-30.5103629153,-53.1622220241,78.7814300344,6965079.62266,7.43911067109,8.17978852098,1.26735212257,0.0103319582341,11649.1047813,1275.46540235,-711.444941904,1
13.2,0.972195121951,0.00177233577963,-0.879465352946,-61.2889112031,78.5985879572,6948914.52353,7.35150216794,8.17978852098,1.2614320708,0.0102287068147,11543.0648727,1429.75594437,-3.06975214844,1
13.6,0.972195121951,0.00177233577963,28.9724121028,-54.0157702223,78.4203540827,6933156.83638,7.46952226032,8.17978852098,1.26925437125,0.0103732494641,11559.1530217,1273.87604314,703.424204768,1
14,0.972195121951,0.00177233577963,51.5445024496,-33.1702933811,78.470424168,6937583.54114,7.54417599292,8.17978852098,1.2742584514,0.0104626493912,11617.6928784,784.319935185,1252.12223232,1
14.4,0.972195121951,0.00177233577963,61.1652029314,-3.99024386774,78.5198869765,6941956.55645,7.56656823126,8.17978852098,1.27577384283,0.010488974779,11645.6146385,78.5947510452,1483.4540256,1
14.8,0.972195121951,0.00177233577963,55.4171569575,26.1924189512,78.5457074984,6944239.35318,7.5679127065,8.17978852098,1.27587407607,0.0104902380305,11654.1562222,-651.746367825,1336.44758115,1
15.2,0.972195121951,0.00177233577963,35.7446540414,49.7938129011,78.5685263748,6946256.77392,7.56124319977,8.17978852098,1.27543761577,0.0104818824643,11657.1067737,-1217.61171009,851.72633264,1
15.6,0.972195121951,0.00177233577963,7.09072870235,60.8837060488,78.591942889,6948327.03193,7.55159106885,8.17978852098,1.27480194931,0.0104699268142,11658.484976,-1476.20421389,153.674907115,1
16,0.972195121951,0.00177233577963,-23.3448569008,56.6755833851,78.6168018335,6950524.81543,7.54362811523,8.17978852098,1.27427958505,0.0104599908669,11661.2804161,-1364.17776636,-581.49657674,1
16.4,0.972195121951,0.00177233577963,-47.9146696535,38.226803787,78.6462052139,6953124.3733,7.53509627023,8.17978852098,1.27372081969,0.0104493113842,11665.100901,-909.861036885,-1169.46437225,1
16.8,0.972195121951,0.00177233577963,-60.4451467361,10.1729214987,78.681540719,6956248.39131,7.51694318244,8.17978852098,1.27252085177,0.0104269686894,11665.0393677,-227.49140741,-1460.46114394,1
17.2,0.972195121951,0.00177233577963,-57.7878031275,-20.4370718418,78.7327745711,6960777.98488,7.48664781459,8.17978852098,1.27051428758,0.0103898083098,11662.5721458,507.596285351,-1381.37967832,1
17.6,0.972195121951,0.00177233577963,-40.6103393862,-45.9119203552,78.8019457764,6966893.4229,7.42225359064,8.17978852098,1.26623151178,0.0103114129036,11645.2821615,1102.74730221,-951.669532343,1
18,0.972195121951,0.00177233577963,-13.2288710869,-59.8506563501,78.7204365453,6959687.17792,7.31577227004,8.17978852098,1.25908175704,0.0101842309734,11558.1682619,1394.6227593,-290.455721429,1
18.4,0.972195121951,0.00177233577963,17.4765650224,-58.7509469778,78.4236158765,6933445.21214,7.36860220089,8.17978852098,1.26251742275,0.010251431344,11501.2075374,1363.5918501,423.801163744,1
18.8,0.972195121951,0.00177233577963,43.7907315229,-42.8891120036,78.4026356081,6931590.34303,7.48116176941,8.17978852098,1.2700249224,0.0103875267001,11560.6582964,1007.17609757,1053.77866772,1
19.2,0.972195121951,0.00177233577963,59.1017685047,-16.2506939969,78.4741839873,6937915.9474,7.52146692568,8.17978852098,1.27274328384,0.0104352061941,11605.556399,372.750327065,1423.41104953,1
19.6,0.972195121951,0.00177233577963,59.5625303023,14.4709736975,78.5185479625,6941838.17399,7.53191411397,8.17978852098,1.27345831076,0.010447206829,11624.9480972,-365.942675383,1429.87916145,1
20,0.972195121951,0.00177233577963,45.0572430621,41.5565752127,78.5514314895,6944745.41221,7.53146990745,8.17978852098,1.27344145379,0.0104462259628,11634.5435976,-1014.6186145,1073.48371664,1
20.4,0.972195121951,0.00177233577963,19.2305947959,58.2004151151,78.5824630333,6947488.91627,7.5245858337,8.17978852098,1.27299350839,0.0104375087659,11639.8132793,-1407.40099201,446.046274593,1
20.8,0.972195121951,0.00177233577963,-11.4280514275,60.2204594497,78.6144109264,6950313.43493,7.51551057213,8.17978852098,1.27239929846,0.010426142738,11644.067728,-1445.78682306,-292.701827707,1
21.2,0.972195121951,0.00177233577963,-39.2152149048,47.1091394077,78.6484296426,6953321.03541,7.50666566764,8.17978852098,1.27182105807,0.0104150317605,11649.0709846,-1121.24737609,-956.782706615,1
21.6,0.972195121951,0.00177233577963,-57.1489214133,22.1608861977,78.6861663309,6956657.34244,7.49484926462,8.17978852098,1.27104530213,0.0104002981915,11653.433765,-515.453970239,-1378.98424661,1
22,0.972195121951,0.00177233577963,-60.7230371524,-8.35564807548,78.733148681,6960811.06,7.47171159133,8.17978852098,1.269515441,0.0103718213913,11653.8849708,217.797180665,-1451.34521656,1
22.4,0.972195121951,0.00177233577963,-49.0395077388,-36.7726906346,78.8017102542,6966872.60035,7.42333452982,8.17978852098,1.26630375443,0.010312716573,11645.8503388,888.200310092,-1154.8439365,1
22.8,0.972195121951,0.00177233577963,-25.0340088944,-55.9499999503,78.8142833943,6967984.1938,7.3400998623,8.17978852098,1.26073858536,0.0102124102725,11600.3983727,1316.56313446,-569.89766932,1
23.2,0.972195121951,0.00177233577963,5.26168955746,-61.0689669044,78.5191666948,6941892.87623,7.29477349018,8.17978852098,1.25761683633,0.0101612517446,11486.2663639,1404.72351233,138.310346113,1
23.6,0.972195121951,0.00177233577963,34.2353034112,-50.8433682609,78.3628487211,6928072.7776,7.43214513151,8.17978852098,1.26673858479,0.01032887518,11520.2436268,1186.91584477,820.435223102,1
24,0.972195121951,0.00177233577963,54.6067435984,-27.8425510567,78.4321717384,6934201.63734,7.48969146455,8.17978852098,1.27060540741,0.0103974316834,11574.4471583,647.758903517,1309.6971697,1
24.4,0.972195121951,0.00177233577963,61.2573563067,2.15415739549,78.4943280019,6939696.88316,7.51221669998,8.17978852098,1.27213320291,0.010423779178,11606.1790018,-69.5778695543,1467.99454841,1
24.8,0.972195121951,0.00177233577963,52.5160675333,31.6095989631,78.5361978359,6943398.6023,7.51457751199,8.17978852098,1.2723069445,0.0104260657348,11620.0913031,-774.382859223,1251.7065667,1
25.2,0.972195121951,0.00177233577963,30.5792674546,53.1226175721,78.5718607533,6946551.56689,7.5102397799,8.17978852098,1.27203075917,0.0104203597309,11628.2295006,-1284.65149628,718.751482633,1
