time,root_dist,x,y,z,rel_vel_mag,Re,alpha_deg,alpha_geom_deg,cl,cd,fx,fy,fz,end_effect_factor
0.4,0.830569105691,0.00860504888523,-24.8158629494,46.3623679196,67.5775417299,10382427.6424,8.15545730406,8.15545730406,1.33552621081,0.0107205285673,28637.2137307,-4081.05979627,-2260.95554645,1
0.8,0.830569105691,0.00860504888523,-44.1962221282,28.4954410851,67.6128160465,10387847.0913,8.08715158676,8.15545730406,1.33133555833,0.0106501893453,28582.5623652,-2448.37543866,-3920.76168878,1
1.2,0.830569105691,0.00860504888523,-52.4715657158,3.46857382379,67.6645735747,10395798.9756,8.15597501733,8.15545730406,1.33563984953,0.0107195637642,28713.4179159,-241.026680582,-4672.01685804,1
1.6,0.830569105691,0.00860504888523,-47.5625797995,-22.4298287077,67.7512626859,10409117.6522,8.09775962033,8.15545730406,1.33212092869,0.0106587361971,28715.8142401,2043.73958823,-4176.11743151,1
