time,root_dist,x,y,z,rel_vel_mag,Re,alpha_deg,alpha_geom_deg,cl,cd,fx,fy,fz,end_effect_factor
0.4,0.994430894309,0.000703877814479,-29.7060230535,55.1738570344,80.1871264913,4363331.12347,8.13027708137,8.13027708137,1.29241000735,0.0117523657781,2528.18927286,-297.175629396,-164.594431715,1
0.8,0.994430894309,0.000703877814479,-52.7479270429,33.8268901672,80.2122723005,4364699.41657,8.13847091713,8.13027708137,1.29281831966,0.011766207715,2530.52857254,-180.319461177,-288.687016594,1
1.2,0.994430894309,0.000703877814479,-62.5360612754,3.98037006628,80.2479171364,4366639.00748,8.1922794217,8.13027708137,1.29544224172,0.0118586757303,2537.61635915,-17.7426659592,-343.160186329,1
1.6,0.994430894309,0.000703877814479,-56.6109987225,-26.866282388,80.319447071,4370531.26306,8.18715989542,8.13027708137,1.29522700018,0.0118489118407,2541.74840344,151.161475083,-308.966462811,1
